   5   5   1   0
  0.1229600E+02  0.3946796E-09  0.3946796E-09  0.3946796E-09  0.5000000E-15
  1.000000000000000E-004
  CAR 
 SrTiO3                                  
     16.42271290    -56.52520985 3333      3.35255462      1.00000000
    -56.525  0.0000E+00  0.0000E+00
    -56.503  0.0000E+00  0.0000E+00
    -56.481  0.0000E+00  0.0000E+00
    -56.460  0.0000E+00  0.0000E+00
    -56.438  0.0000E+00  0.0000E+00
    -56.416  0.0000E+00  0.0000E+00
    -56.394  0.0000E+00  0.0000E+00
    -56.372  0.0000E+00  0.0000E+00
    -56.350  0.0000E+00  0.0000E+00
    -56.328  0.0000E+00  0.0000E+00
    -56.306  0.0000E+00  0.0000E+00
    -56.284  0.0000E+00  0.0000E+00
    -56.262  0.0000E+00  0.0000E+00
    -56.241  0.0000E+00  0.0000E+00
    -56.219  0.0000E+00  0.0000E+00
    -56.197  0.0000E+00  0.0000E+00
    -56.175  0.0000E+00  0.0000E+00
    -56.153  0.0000E+00  0.0000E+00
    -56.131  0.0000E+00  0.0000E+00
    -56.109  0.0000E+00  0.0000E+00
    -56.087  0.0000E+00  0.0000E+00
    -56.065  0.0000E+00  0.0000E+00
    -56.044  0.0000E+00  0.0000E+00
    -56.022  0.0000E+00  0.0000E+00
    -56.000  0.0000E+00  0.0000E+00
    -55.978  0.0000E+00  0.0000E+00
    -55.956  0.0000E+00  0.0000E+00
    -55.934  0.0000E+00  0.0000E+00
    -55.912  0.0000E+00  0.0000E+00
    -55.890  0.0000E+00  0.0000E+00
    -55.868  0.0000E+00  0.0000E+00
    -55.847  0.0000E+00  0.0000E+00
    -55.825  0.0000E+00  0.0000E+00
    -55.803  0.0000E+00  0.0000E+00
    -55.781  0.0000E+00  0.0000E+00
    -55.759  0.0000E+00  0.0000E+00
    -55.737  0.0000E+00  0.0000E+00
    -55.715  0.0000E+00  0.0000E+00
    -55.693  0.0000E+00  0.0000E+00
    -55.671  0.0000E+00  0.0000E+00
    -55.649  0.0000E+00  0.0000E+00
    -55.628  0.0000E+00  0.0000E+00
    -55.606  0.0000E+00  0.0000E+00
    -55.584  0.0000E+00  0.0000E+00
    -55.562  0.0000E+00  0.0000E+00
    -55.540  0.0000E+00  0.0000E+00
    -55.518  0.0000E+00  0.0000E+00
    -55.496  0.0000E+00  0.0000E+00
    -55.474  0.0000E+00  0.0000E+00
    -55.452  0.0000E+00  0.0000E+00
    -55.431  0.0000E+00  0.0000E+00
    -55.409  0.0000E+00  0.0000E+00
    -55.387  0.0000E+00  0.0000E+00
    -55.365  0.0000E+00  0.0000E+00
    -55.343  0.0000E+00  0.0000E+00
    -55.321  0.0000E+00  0.0000E+00
    -55.299  0.0000E+00  0.0000E+00
    -55.277  0.0000E+00  0.0000E+00
    -55.255  0.0000E+00  0.0000E+00
    -55.234  0.0000E+00  0.0000E+00
    -55.212  0.0000E+00  0.0000E+00
    -55.190  0.0000E+00  0.0000E+00
    -55.168  0.0000E+00  0.0000E+00
    -55.146  0.0000E+00  0.0000E+00
    -55.124  0.0000E+00  0.0000E+00
    -55.102  0.0000E+00  0.0000E+00
    -55.080  0.0000E+00  0.0000E+00
    -55.058  0.0000E+00  0.0000E+00
    -55.036  0.0000E+00  0.0000E+00
    -55.015  0.0000E+00  0.0000E+00
    -54.993  0.0000E+00  0.0000E+00
    -54.971  0.0000E+00  0.0000E+00
    -54.949  0.0000E+00  0.0000E+00
    -54.927  0.0000E+00  0.0000E+00
    -54.905  0.0000E+00  0.0000E+00
    -54.883  0.0000E+00  0.0000E+00
    -54.861  0.0000E+00  0.0000E+00
    -54.839  0.0000E+00  0.0000E+00
    -54.818  0.0000E+00  0.0000E+00
    -54.796  0.0000E+00  0.0000E+00
    -54.774  0.0000E+00  0.0000E+00
    -54.752  0.0000E+00  0.0000E+00
    -54.730  0.0000E+00  0.0000E+00
    -54.708  0.0000E+00  0.0000E+00
    -54.686  0.0000E+00  0.0000E+00
    -54.664  0.0000E+00  0.0000E+00
    -54.642  0.0000E+00  0.0000E+00
    -54.621  0.0000E+00  0.0000E+00
    -54.599  0.0000E+00  0.0000E+00
    -54.577  0.0000E+00  0.0000E+00
    -54.555  0.0000E+00  0.0000E+00
    -54.533  0.0000E+00  0.0000E+00
    -54.511  0.0000E+00  0.0000E+00
    -54.489  0.0000E+00  0.0000E+00
    -54.467  0.0000E+00  0.0000E+00
    -54.445  0.0000E+00  0.0000E+00
    -54.423  0.0000E+00  0.0000E+00
    -54.402  0.0000E+00  0.0000E+00
    -54.380  0.0000E+00  0.0000E+00
    -54.358  0.0000E+00  0.0000E+00
    -54.336  0.0000E+00  0.0000E+00
    -54.314  0.0000E+00  0.0000E+00
    -54.292  0.0000E+00  0.0000E+00
    -54.270  0.0000E+00  0.0000E+00
    -54.248  0.0000E+00  0.0000E+00
    -54.226  0.0000E+00  0.0000E+00
    -54.205  0.0000E+00  0.0000E+00
    -54.183  0.0000E+00  0.0000E+00
    -54.161  0.0000E+00  0.0000E+00
    -54.139  0.0000E+00  0.0000E+00
    -54.117  0.0000E+00  0.0000E+00
    -54.095  0.0000E+00  0.0000E+00
    -54.073  0.0000E+00  0.0000E+00
    -54.051  0.0000E+00  0.0000E+00
    -54.029  0.0000E+00  0.0000E+00
    -54.007  0.0000E+00  0.0000E+00
    -53.986  0.0000E+00  0.0000E+00
    -53.964  0.0000E+00  0.0000E+00
    -53.942  0.0000E+00  0.0000E+00
    -53.920  0.0000E+00  0.0000E+00
    -53.898  0.0000E+00  0.0000E+00
    -53.876  0.0000E+00  0.0000E+00
    -53.854  0.0000E+00  0.0000E+00
    -53.832  0.0000E+00  0.0000E+00
    -53.810  0.0000E+00  0.0000E+00
    -53.789  0.0000E+00  0.0000E+00
    -53.767  0.0000E+00  0.0000E+00
    -53.745  0.0000E+00  0.0000E+00
    -53.723  0.0000E+00  0.0000E+00
    -53.701  0.0000E+00  0.0000E+00
    -53.679  0.0000E+00  0.0000E+00
    -53.657  0.0000E+00  0.0000E+00
    -53.635  0.0000E+00  0.0000E+00
    -53.613  0.0000E+00  0.0000E+00
    -53.592  0.0000E+00  0.0000E+00
    -53.570  0.0000E+00  0.0000E+00
    -53.548  0.0000E+00  0.0000E+00
    -53.526  0.0000E+00  0.0000E+00
    -53.504  0.1606E-14  0.3516E-16
    -53.482  0.3515E-12  0.7731E-14
    -53.460  0.3841E-10  0.8487E-12
    -53.438  0.2880E-08  0.6391E-10
    -53.416  0.1482E-06  0.3308E-08
    -53.394  0.5232E-05  0.1179E-06
    -53.373  0.1269E-03  0.2896E-05
    -53.351  0.2116E-02  0.4922E-04
    -53.329  0.2427E-01  0.5805E-03
    -53.307  0.1916E+00  0.4775E-02
    -53.285  0.1042E+01  0.2759E-01
    -53.263  0.3907E+01  0.1131E+00
    -53.241  0.1010E+02  0.3342E+00
    -53.219  0.1802E+02  0.7287E+00
    -53.197  0.2218E+02  0.1214E+01
    -53.176  0.1885E+02  0.1627E+01
    -53.154  0.1105E+02  0.1869E+01
    -53.132  0.4471E+01  0.1967E+01
    -53.110  0.1248E+01  0.1994E+01
    -53.088  0.2400E+00  0.1999E+01
    -53.066  0.3180E-01  0.2000E+01
    -53.044  0.2902E-02  0.2000E+01
    -53.022  0.1821E-03  0.2000E+01
    -53.000  0.7859E-05  0.2000E+01
    -52.979  0.2330E-06  0.2000E+01
    -52.957  0.4741E-08  0.2000E+01
    -52.935  0.6620E-10  0.2000E+01
    -52.913  0.6381E-12  0.2000E+01
    -52.891  0.0000E+00  0.2000E+01
    -52.869  0.0000E+00  0.2000E+01
    -52.847  0.0000E+00  0.2000E+01
    -52.825  0.0000E+00  0.2000E+01
    -52.803  0.0000E+00  0.2000E+01
    -52.781  0.0000E+00  0.2000E+01
    -52.760  0.0000E+00  0.2000E+01
    -52.738  0.0000E+00  0.2000E+01
    -52.716  0.0000E+00  0.2000E+01
    -52.694  0.0000E+00  0.2000E+01
    -52.672  0.0000E+00  0.2000E+01
    -52.650  0.0000E+00  0.2000E+01
    -52.628  0.0000E+00  0.2000E+01
    -52.606  0.0000E+00  0.2000E+01
    -52.584  0.0000E+00  0.2000E+01
    -52.563  0.0000E+00  0.2000E+01
    -52.541  0.0000E+00  0.2000E+01
    -52.519  0.0000E+00  0.2000E+01
    -52.497  0.0000E+00  0.2000E+01
    -52.475  0.0000E+00  0.2000E+01
    -52.453  0.0000E+00  0.2000E+01
    -52.431  0.0000E+00  0.2000E+01
    -52.409  0.0000E+00  0.2000E+01
    -52.387  0.0000E+00  0.2000E+01
    -52.366  0.0000E+00  0.2000E+01
    -52.344  0.0000E+00  0.2000E+01
    -52.322  0.0000E+00  0.2000E+01
    -52.300  0.0000E+00  0.2000E+01
    -52.278  0.0000E+00  0.2000E+01
    -52.256  0.0000E+00  0.2000E+01
    -52.234  0.0000E+00  0.2000E+01
    -52.212  0.0000E+00  0.2000E+01
    -52.190  0.0000E+00  0.2000E+01
    -52.168  0.0000E+00  0.2000E+01
    -52.147  0.0000E+00  0.2000E+01
    -52.125  0.0000E+00  0.2000E+01
    -52.103  0.0000E+00  0.2000E+01
    -52.081  0.0000E+00  0.2000E+01
    -52.059  0.0000E+00  0.2000E+01
    -52.037  0.0000E+00  0.2000E+01
    -52.015  0.0000E+00  0.2000E+01
    -51.993  0.0000E+00  0.2000E+01
    -51.971  0.0000E+00  0.2000E+01
    -51.950  0.0000E+00  0.2000E+01
    -51.928  0.0000E+00  0.2000E+01
    -51.906  0.0000E+00  0.2000E+01
    -51.884  0.0000E+00  0.2000E+01
    -51.862  0.0000E+00  0.2000E+01
    -51.840  0.0000E+00  0.2000E+01
    -51.818  0.0000E+00  0.2000E+01
    -51.796  0.0000E+00  0.2000E+01
    -51.774  0.0000E+00  0.2000E+01
    -51.753  0.0000E+00  0.2000E+01
    -51.731  0.0000E+00  0.2000E+01
    -51.709  0.0000E+00  0.2000E+01
    -51.687  0.0000E+00  0.2000E+01
    -51.665  0.0000E+00  0.2000E+01
    -51.643  0.0000E+00  0.2000E+01
    -51.621  0.0000E+00  0.2000E+01
    -51.599  0.0000E+00  0.2000E+01
    -51.577  0.0000E+00  0.2000E+01
    -51.555  0.0000E+00  0.2000E+01
    -51.534  0.0000E+00  0.2000E+01
    -51.512  0.0000E+00  0.2000E+01
    -51.490  0.0000E+00  0.2000E+01
    -51.468  0.0000E+00  0.2000E+01
    -51.446  0.0000E+00  0.2000E+01
    -51.424  0.0000E+00  0.2000E+01
    -51.402  0.0000E+00  0.2000E+01
    -51.380  0.0000E+00  0.2000E+01
    -51.358  0.0000E+00  0.2000E+01
    -51.337  0.0000E+00  0.2000E+01
    -51.315  0.0000E+00  0.2000E+01
    -51.293  0.0000E+00  0.2000E+01
    -51.271  0.0000E+00  0.2000E+01
    -51.249  0.0000E+00  0.2000E+01
    -51.227  0.0000E+00  0.2000E+01
    -51.205  0.0000E+00  0.2000E+01
    -51.183  0.0000E+00  0.2000E+01
    -51.161  0.0000E+00  0.2000E+01
    -51.139  0.0000E+00  0.2000E+01
    -51.118  0.0000E+00  0.2000E+01
    -51.096  0.0000E+00  0.2000E+01
    -51.074  0.0000E+00  0.2000E+01
    -51.052  0.0000E+00  0.2000E+01
    -51.030  0.0000E+00  0.2000E+01
    -51.008  0.0000E+00  0.2000E+01
    -50.986  0.0000E+00  0.2000E+01
    -50.964  0.0000E+00  0.2000E+01
    -50.942  0.0000E+00  0.2000E+01
    -50.921  0.0000E+00  0.2000E+01
    -50.899  0.0000E+00  0.2000E+01
    -50.877  0.0000E+00  0.2000E+01
    -50.855  0.0000E+00  0.2000E+01
    -50.833  0.0000E+00  0.2000E+01
    -50.811  0.0000E+00  0.2000E+01
    -50.789  0.0000E+00  0.2000E+01
    -50.767  0.0000E+00  0.2000E+01
    -50.745  0.0000E+00  0.2000E+01
    -50.724  0.0000E+00  0.2000E+01
    -50.702  0.0000E+00  0.2000E+01
    -50.680  0.0000E+00  0.2000E+01
    -50.658  0.0000E+00  0.2000E+01
    -50.636  0.0000E+00  0.2000E+01
    -50.614  0.0000E+00  0.2000E+01
    -50.592  0.0000E+00  0.2000E+01
    -50.570  0.0000E+00  0.2000E+01
    -50.548  0.0000E+00  0.2000E+01
    -50.526  0.0000E+00  0.2000E+01
    -50.505  0.0000E+00  0.2000E+01
    -50.483  0.0000E+00  0.2000E+01
    -50.461  0.0000E+00  0.2000E+01
    -50.439  0.0000E+00  0.2000E+01
    -50.417  0.0000E+00  0.2000E+01
    -50.395  0.0000E+00  0.2000E+01
    -50.373  0.0000E+00  0.2000E+01
    -50.351  0.0000E+00  0.2000E+01
    -50.329  0.0000E+00  0.2000E+01
    -50.308  0.0000E+00  0.2000E+01
    -50.286  0.0000E+00  0.2000E+01
    -50.264  0.0000E+00  0.2000E+01
    -50.242  0.0000E+00  0.2000E+01
    -50.220  0.0000E+00  0.2000E+01
    -50.198  0.0000E+00  0.2000E+01
    -50.176  0.0000E+00  0.2000E+01
    -50.154  0.0000E+00  0.2000E+01
    -50.132  0.0000E+00  0.2000E+01
    -50.111  0.0000E+00  0.2000E+01
    -50.089  0.0000E+00  0.2000E+01
    -50.067  0.0000E+00  0.2000E+01
    -50.045  0.0000E+00  0.2000E+01
    -50.023  0.0000E+00  0.2000E+01
    -50.001  0.0000E+00  0.2000E+01
    -49.979  0.0000E+00  0.2000E+01
    -49.957  0.0000E+00  0.2000E+01
    -49.935  0.0000E+00  0.2000E+01
    -49.913  0.0000E+00  0.2000E+01
    -49.892  0.0000E+00  0.2000E+01
    -49.870  0.0000E+00  0.2000E+01
    -49.848  0.0000E+00  0.2000E+01
    -49.826  0.0000E+00  0.2000E+01
    -49.804  0.0000E+00  0.2000E+01
    -49.782  0.0000E+00  0.2000E+01
    -49.760  0.0000E+00  0.2000E+01
    -49.738  0.0000E+00  0.2000E+01
    -49.716  0.0000E+00  0.2000E+01
    -49.695  0.0000E+00  0.2000E+01
    -49.673  0.0000E+00  0.2000E+01
    -49.651  0.0000E+00  0.2000E+01
    -49.629  0.0000E+00  0.2000E+01
    -49.607  0.0000E+00  0.2000E+01
    -49.585  0.0000E+00  0.2000E+01
    -49.563  0.0000E+00  0.2000E+01
    -49.541  0.0000E+00  0.2000E+01
    -49.519  0.0000E+00  0.2000E+01
    -49.498  0.0000E+00  0.2000E+01
    -49.476  0.0000E+00  0.2000E+01
    -49.454  0.0000E+00  0.2000E+01
    -49.432  0.0000E+00  0.2000E+01
    -49.410  0.0000E+00  0.2000E+01
    -49.388  0.0000E+00  0.2000E+01
    -49.366  0.0000E+00  0.2000E+01
    -49.344  0.0000E+00  0.2000E+01
    -49.322  0.0000E+00  0.2000E+01
    -49.300  0.0000E+00  0.2000E+01
    -49.279  0.0000E+00  0.2000E+01
    -49.257  0.0000E+00  0.2000E+01
    -49.235  0.0000E+00  0.2000E+01
    -49.213  0.0000E+00  0.2000E+01
    -49.191  0.0000E+00  0.2000E+01
    -49.169  0.0000E+00  0.2000E+01
    -49.147  0.0000E+00  0.2000E+01
    -49.125  0.0000E+00  0.2000E+01
    -49.103  0.0000E+00  0.2000E+01
    -49.082  0.0000E+00  0.2000E+01
    -49.060  0.0000E+00  0.2000E+01
    -49.038  0.0000E+00  0.2000E+01
    -49.016  0.0000E+00  0.2000E+01
    -48.994  0.0000E+00  0.2000E+01
    -48.972  0.0000E+00  0.2000E+01
    -48.950  0.0000E+00  0.2000E+01
    -48.928  0.0000E+00  0.2000E+01
    -48.906  0.0000E+00  0.2000E+01
    -48.885  0.0000E+00  0.2000E+01
    -48.863  0.0000E+00  0.2000E+01
    -48.841  0.0000E+00  0.2000E+01
    -48.819  0.0000E+00  0.2000E+01
    -48.797  0.0000E+00  0.2000E+01
    -48.775  0.0000E+00  0.2000E+01
    -48.753  0.0000E+00  0.2000E+01
    -48.731  0.0000E+00  0.2000E+01
    -48.709  0.0000E+00  0.2000E+01
    -48.687  0.0000E+00  0.2000E+01
    -48.666  0.0000E+00  0.2000E+01
    -48.644  0.0000E+00  0.2000E+01
    -48.622  0.0000E+00  0.2000E+01
    -48.600  0.0000E+00  0.2000E+01
    -48.578  0.0000E+00  0.2000E+01
    -48.556  0.0000E+00  0.2000E+01
    -48.534  0.0000E+00  0.2000E+01
    -48.512  0.0000E+00  0.2000E+01
    -48.490  0.0000E+00  0.2000E+01
    -48.469  0.0000E+00  0.2000E+01
    -48.447  0.0000E+00  0.2000E+01
    -48.425  0.0000E+00  0.2000E+01
    -48.403  0.0000E+00  0.2000E+01
    -48.381  0.0000E+00  0.2000E+01
    -48.359  0.0000E+00  0.2000E+01
    -48.337  0.0000E+00  0.2000E+01
    -48.315  0.0000E+00  0.2000E+01
    -48.293  0.0000E+00  0.2000E+01
    -48.271  0.0000E+00  0.2000E+01
    -48.250  0.0000E+00  0.2000E+01
    -48.228  0.0000E+00  0.2000E+01
    -48.206  0.0000E+00  0.2000E+01
    -48.184  0.0000E+00  0.2000E+01
    -48.162  0.0000E+00  0.2000E+01
    -48.140  0.0000E+00  0.2000E+01
    -48.118  0.0000E+00  0.2000E+01
    -48.096  0.0000E+00  0.2000E+01
    -48.074  0.0000E+00  0.2000E+01
    -48.053  0.0000E+00  0.2000E+01
    -48.031  0.0000E+00  0.2000E+01
    -48.009  0.0000E+00  0.2000E+01
    -47.987  0.0000E+00  0.2000E+01
    -47.965  0.0000E+00  0.2000E+01
    -47.943  0.0000E+00  0.2000E+01
    -47.921  0.0000E+00  0.2000E+01
    -47.899  0.0000E+00  0.2000E+01
    -47.877  0.0000E+00  0.2000E+01
    -47.856  0.0000E+00  0.2000E+01
    -47.834  0.0000E+00  0.2000E+01
    -47.812  0.0000E+00  0.2000E+01
    -47.790  0.0000E+00  0.2000E+01
    -47.768  0.0000E+00  0.2000E+01
    -47.746  0.0000E+00  0.2000E+01
    -47.724  0.0000E+00  0.2000E+01
    -47.702  0.0000E+00  0.2000E+01
    -47.680  0.0000E+00  0.2000E+01
    -47.658  0.0000E+00  0.2000E+01
    -47.637  0.0000E+00  0.2000E+01
    -47.615  0.0000E+00  0.2000E+01
    -47.593  0.0000E+00  0.2000E+01
    -47.571  0.0000E+00  0.2000E+01
    -47.549  0.0000E+00  0.2000E+01
    -47.527  0.0000E+00  0.2000E+01
    -47.505  0.0000E+00  0.2000E+01
    -47.483  0.0000E+00  0.2000E+01
    -47.461  0.0000E+00  0.2000E+01
    -47.440  0.0000E+00  0.2000E+01
    -47.418  0.0000E+00  0.2000E+01
    -47.396  0.0000E+00  0.2000E+01
    -47.374  0.0000E+00  0.2000E+01
    -47.352  0.0000E+00  0.2000E+01
    -47.330  0.0000E+00  0.2000E+01
    -47.308  0.0000E+00  0.2000E+01
    -47.286  0.0000E+00  0.2000E+01
    -47.264  0.0000E+00  0.2000E+01
    -47.243  0.0000E+00  0.2000E+01
    -47.221  0.0000E+00  0.2000E+01
    -47.199  0.0000E+00  0.2000E+01
    -47.177  0.0000E+00  0.2000E+01
    -47.155  0.0000E+00  0.2000E+01
    -47.133  0.0000E+00  0.2000E+01
    -47.111  0.0000E+00  0.2000E+01
    -47.089  0.0000E+00  0.2000E+01
    -47.067  0.0000E+00  0.2000E+01
    -47.045  0.0000E+00  0.2000E+01
    -47.024  0.0000E+00  0.2000E+01
    -47.002  0.0000E+00  0.2000E+01
    -46.980  0.0000E+00  0.2000E+01
    -46.958  0.0000E+00  0.2000E+01
    -46.936  0.0000E+00  0.2000E+01
    -46.914  0.0000E+00  0.2000E+01
    -46.892  0.0000E+00  0.2000E+01
    -46.870  0.0000E+00  0.2000E+01
    -46.848  0.0000E+00  0.2000E+01
    -46.827  0.0000E+00  0.2000E+01
    -46.805  0.0000E+00  0.2000E+01
    -46.783  0.0000E+00  0.2000E+01
    -46.761  0.0000E+00  0.2000E+01
    -46.739  0.0000E+00  0.2000E+01
    -46.717  0.0000E+00  0.2000E+01
    -46.695  0.0000E+00  0.2000E+01
    -46.673  0.0000E+00  0.2000E+01
    -46.651  0.0000E+00  0.2000E+01
    -46.630  0.0000E+00  0.2000E+01
    -46.608  0.0000E+00  0.2000E+01
    -46.586  0.0000E+00  0.2000E+01
    -46.564  0.0000E+00  0.2000E+01
    -46.542  0.0000E+00  0.2000E+01
    -46.520  0.0000E+00  0.2000E+01
    -46.498  0.0000E+00  0.2000E+01
    -46.476  0.0000E+00  0.2000E+01
    -46.454  0.0000E+00  0.2000E+01
    -46.432  0.0000E+00  0.2000E+01
    -46.411  0.0000E+00  0.2000E+01
    -46.389  0.0000E+00  0.2000E+01
    -46.367  0.0000E+00  0.2000E+01
    -46.345  0.0000E+00  0.2000E+01
    -46.323  0.0000E+00  0.2000E+01
    -46.301  0.0000E+00  0.2000E+01
    -46.279  0.0000E+00  0.2000E+01
    -46.257  0.0000E+00  0.2000E+01
    -46.235  0.0000E+00  0.2000E+01
    -46.214  0.0000E+00  0.2000E+01
    -46.192  0.0000E+00  0.2000E+01
    -46.170  0.0000E+00  0.2000E+01
    -46.148  0.0000E+00  0.2000E+01
    -46.126  0.0000E+00  0.2000E+01
    -46.104  0.0000E+00  0.2000E+01
    -46.082  0.0000E+00  0.2000E+01
    -46.060  0.0000E+00  0.2000E+01
    -46.038  0.0000E+00  0.2000E+01
    -46.017  0.0000E+00  0.2000E+01
    -45.995  0.0000E+00  0.2000E+01
    -45.973  0.0000E+00  0.2000E+01
    -45.951  0.0000E+00  0.2000E+01
    -45.929  0.0000E+00  0.2000E+01
    -45.907  0.0000E+00  0.2000E+01
    -45.885  0.0000E+00  0.2000E+01
    -45.863  0.0000E+00  0.2000E+01
    -45.841  0.0000E+00  0.2000E+01
    -45.819  0.0000E+00  0.2000E+01
    -45.798  0.0000E+00  0.2000E+01
    -45.776  0.0000E+00  0.2000E+01
    -45.754  0.0000E+00  0.2000E+01
    -45.732  0.0000E+00  0.2000E+01
    -45.710  0.0000E+00  0.2000E+01
    -45.688  0.0000E+00  0.2000E+01
    -45.666  0.0000E+00  0.2000E+01
    -45.644  0.0000E+00  0.2000E+01
    -45.622  0.0000E+00  0.2000E+01
    -45.601  0.0000E+00  0.2000E+01
    -45.579  0.0000E+00  0.2000E+01
    -45.557  0.0000E+00  0.2000E+01
    -45.535  0.0000E+00  0.2000E+01
    -45.513  0.0000E+00  0.2000E+01
    -45.491  0.0000E+00  0.2000E+01
    -45.469  0.0000E+00  0.2000E+01
    -45.447  0.0000E+00  0.2000E+01
    -45.425  0.0000E+00  0.2000E+01
    -45.403  0.0000E+00  0.2000E+01
    -45.382  0.0000E+00  0.2000E+01
    -45.360  0.0000E+00  0.2000E+01
    -45.338  0.0000E+00  0.2000E+01
    -45.316  0.0000E+00  0.2000E+01
    -45.294  0.0000E+00  0.2000E+01
    -45.272  0.0000E+00  0.2000E+01
    -45.250  0.0000E+00  0.2000E+01
    -45.228  0.0000E+00  0.2000E+01
    -45.206  0.0000E+00  0.2000E+01
    -45.185  0.0000E+00  0.2000E+01
    -45.163  0.0000E+00  0.2000E+01
    -45.141  0.0000E+00  0.2000E+01
    -45.119  0.0000E+00  0.2000E+01
    -45.097  0.0000E+00  0.2000E+01
    -45.075  0.0000E+00  0.2000E+01
    -45.053  0.0000E+00  0.2000E+01
    -45.031  0.0000E+00  0.2000E+01
    -45.009  0.0000E+00  0.2000E+01
    -44.988  0.0000E+00  0.2000E+01
    -44.966  0.0000E+00  0.2000E+01
    -44.944  0.0000E+00  0.2000E+01
    -44.922  0.0000E+00  0.2000E+01
    -44.900  0.0000E+00  0.2000E+01
    -44.878  0.0000E+00  0.2000E+01
    -44.856  0.0000E+00  0.2000E+01
    -44.834  0.0000E+00  0.2000E+01
    -44.812  0.0000E+00  0.2000E+01
    -44.790  0.0000E+00  0.2000E+01
    -44.769  0.0000E+00  0.2000E+01
    -44.747  0.0000E+00  0.2000E+01
    -44.725  0.0000E+00  0.2000E+01
    -44.703  0.0000E+00  0.2000E+01
    -44.681  0.0000E+00  0.2000E+01
    -44.659  0.0000E+00  0.2000E+01
    -44.637  0.0000E+00  0.2000E+01
    -44.615  0.0000E+00  0.2000E+01
    -44.593  0.0000E+00  0.2000E+01
    -44.572  0.0000E+00  0.2000E+01
    -44.550  0.0000E+00  0.2000E+01
    -44.528  0.0000E+00  0.2000E+01
    -44.506  0.0000E+00  0.2000E+01
    -44.484  0.0000E+00  0.2000E+01
    -44.462  0.0000E+00  0.2000E+01
    -44.440  0.0000E+00  0.2000E+01
    -44.418  0.0000E+00  0.2000E+01
    -44.396  0.0000E+00  0.2000E+01
    -44.375  0.0000E+00  0.2000E+01
    -44.353  0.0000E+00  0.2000E+01
    -44.331  0.0000E+00  0.2000E+01
    -44.309  0.0000E+00  0.2000E+01
    -44.287  0.0000E+00  0.2000E+01
    -44.265  0.0000E+00  0.2000E+01
    -44.243  0.0000E+00  0.2000E+01
    -44.221  0.0000E+00  0.2000E+01
    -44.199  0.0000E+00  0.2000E+01
    -44.177  0.0000E+00  0.2000E+01
    -44.156  0.0000E+00  0.2000E+01
    -44.134  0.0000E+00  0.2000E+01
    -44.112  0.0000E+00  0.2000E+01
    -44.090  0.0000E+00  0.2000E+01
    -44.068  0.0000E+00  0.2000E+01
    -44.046  0.0000E+00  0.2000E+01
    -44.024  0.0000E+00  0.2000E+01
    -44.002  0.0000E+00  0.2000E+01
    -43.980  0.0000E+00  0.2000E+01
    -43.959  0.0000E+00  0.2000E+01
    -43.937  0.0000E+00  0.2000E+01
    -43.915  0.0000E+00  0.2000E+01
    -43.893  0.0000E+00  0.2000E+01
    -43.871  0.0000E+00  0.2000E+01
    -43.849  0.0000E+00  0.2000E+01
    -43.827  0.0000E+00  0.2000E+01
    -43.805  0.0000E+00  0.2000E+01
    -43.783  0.0000E+00  0.2000E+01
    -43.762  0.0000E+00  0.2000E+01
    -43.740  0.0000E+00  0.2000E+01
    -43.718  0.0000E+00  0.2000E+01
    -43.696  0.0000E+00  0.2000E+01
    -43.674  0.0000E+00  0.2000E+01
    -43.652  0.0000E+00  0.2000E+01
    -43.630  0.0000E+00  0.2000E+01
    -43.608  0.0000E+00  0.2000E+01
    -43.586  0.0000E+00  0.2000E+01
    -43.564  0.0000E+00  0.2000E+01
    -43.543  0.0000E+00  0.2000E+01
    -43.521  0.0000E+00  0.2000E+01
    -43.499  0.0000E+00  0.2000E+01
    -43.477  0.0000E+00  0.2000E+01
    -43.455  0.0000E+00  0.2000E+01
    -43.433  0.0000E+00  0.2000E+01
    -43.411  0.0000E+00  0.2000E+01
    -43.389  0.0000E+00  0.2000E+01
    -43.367  0.0000E+00  0.2000E+01
    -43.346  0.0000E+00  0.2000E+01
    -43.324  0.0000E+00  0.2000E+01
    -43.302  0.0000E+00  0.2000E+01
    -43.280  0.0000E+00  0.2000E+01
    -43.258  0.0000E+00  0.2000E+01
    -43.236  0.0000E+00  0.2000E+01
    -43.214  0.0000E+00  0.2000E+01
    -43.192  0.0000E+00  0.2000E+01
    -43.170  0.0000E+00  0.2000E+01
    -43.149  0.0000E+00  0.2000E+01
    -43.127  0.0000E+00  0.2000E+01
    -43.105  0.0000E+00  0.2000E+01
    -43.083  0.0000E+00  0.2000E+01
    -43.061  0.0000E+00  0.2000E+01
    -43.039  0.0000E+00  0.2000E+01
    -43.017  0.0000E+00  0.2000E+01
    -42.995  0.0000E+00  0.2000E+01
    -42.973  0.0000E+00  0.2000E+01
    -42.951  0.0000E+00  0.2000E+01
    -42.930  0.0000E+00  0.2000E+01
    -42.908  0.0000E+00  0.2000E+01
    -42.886  0.0000E+00  0.2000E+01
    -42.864  0.0000E+00  0.2000E+01
    -42.842  0.0000E+00  0.2000E+01
    -42.820  0.0000E+00  0.2000E+01
    -42.798  0.0000E+00  0.2000E+01
    -42.776  0.0000E+00  0.2000E+01
    -42.754  0.0000E+00  0.2000E+01
    -42.733  0.0000E+00  0.2000E+01
    -42.711  0.0000E+00  0.2000E+01
    -42.689  0.0000E+00  0.2000E+01
    -42.667  0.0000E+00  0.2000E+01
    -42.645  0.0000E+00  0.2000E+01
    -42.623  0.0000E+00  0.2000E+01
    -42.601  0.0000E+00  0.2000E+01
    -42.579  0.0000E+00  0.2000E+01
    -42.557  0.0000E+00  0.2000E+01
    -42.535  0.0000E+00  0.2000E+01
    -42.514  0.0000E+00  0.2000E+01
    -42.492  0.0000E+00  0.2000E+01
    -42.470  0.0000E+00  0.2000E+01
    -42.448  0.0000E+00  0.2000E+01
    -42.426  0.0000E+00  0.2000E+01
    -42.404  0.0000E+00  0.2000E+01
    -42.382  0.0000E+00  0.2000E+01
    -42.360  0.0000E+00  0.2000E+01
    -42.338  0.0000E+00  0.2000E+01
    -42.317  0.0000E+00  0.2000E+01
    -42.295  0.0000E+00  0.2000E+01
    -42.273  0.0000E+00  0.2000E+01
    -42.251  0.0000E+00  0.2000E+01
    -42.229  0.0000E+00  0.2000E+01
    -42.207  0.0000E+00  0.2000E+01
    -42.185  0.0000E+00  0.2000E+01
    -42.163  0.0000E+00  0.2000E+01
    -42.141  0.0000E+00  0.2000E+01
    -42.120  0.0000E+00  0.2000E+01
    -42.098  0.0000E+00  0.2000E+01
    -42.076  0.0000E+00  0.2000E+01
    -42.054  0.0000E+00  0.2000E+01
    -42.032  0.0000E+00  0.2000E+01
    -42.010  0.0000E+00  0.2000E+01
    -41.988  0.0000E+00  0.2000E+01
    -41.966  0.0000E+00  0.2000E+01
    -41.944  0.0000E+00  0.2000E+01
    -41.922  0.0000E+00  0.2000E+01
    -41.901  0.0000E+00  0.2000E+01
    -41.879  0.0000E+00  0.2000E+01
    -41.857  0.0000E+00  0.2000E+01
    -41.835  0.0000E+00  0.2000E+01
    -41.813  0.0000E+00  0.2000E+01
    -41.791  0.0000E+00  0.2000E+01
    -41.769  0.0000E+00  0.2000E+01
    -41.747  0.0000E+00  0.2000E+01
    -41.725  0.0000E+00  0.2000E+01
    -41.704  0.0000E+00  0.2000E+01
    -41.682  0.0000E+00  0.2000E+01
    -41.660  0.0000E+00  0.2000E+01
    -41.638  0.0000E+00  0.2000E+01
    -41.616  0.0000E+00  0.2000E+01
    -41.594  0.0000E+00  0.2000E+01
    -41.572  0.0000E+00  0.2000E+01
    -41.550  0.0000E+00  0.2000E+01
    -41.528  0.0000E+00  0.2000E+01
    -41.507  0.0000E+00  0.2000E+01
    -41.485  0.0000E+00  0.2000E+01
    -41.463  0.0000E+00  0.2000E+01
    -41.441  0.0000E+00  0.2000E+01
    -41.419  0.0000E+00  0.2000E+01
    -41.397  0.0000E+00  0.2000E+01
    -41.375  0.0000E+00  0.2000E+01
    -41.353  0.0000E+00  0.2000E+01
    -41.331  0.0000E+00  0.2000E+01
    -41.309  0.0000E+00  0.2000E+01
    -41.288  0.0000E+00  0.2000E+01
    -41.266  0.0000E+00  0.2000E+01
    -41.244  0.0000E+00  0.2000E+01
    -41.222  0.0000E+00  0.2000E+01
    -41.200  0.0000E+00  0.2000E+01
    -41.178  0.0000E+00  0.2000E+01
    -41.156  0.0000E+00  0.2000E+01
    -41.134  0.0000E+00  0.2000E+01
    -41.112  0.0000E+00  0.2000E+01
    -41.091  0.0000E+00  0.2000E+01
    -41.069  0.0000E+00  0.2000E+01
    -41.047  0.0000E+00  0.2000E+01
    -41.025  0.0000E+00  0.2000E+01
    -41.003  0.0000E+00  0.2000E+01
    -40.981  0.0000E+00  0.2000E+01
    -40.959  0.0000E+00  0.2000E+01
    -40.937  0.0000E+00  0.2000E+01
    -40.915  0.0000E+00  0.2000E+01
    -40.894  0.0000E+00  0.2000E+01
    -40.872  0.0000E+00  0.2000E+01
    -40.850  0.0000E+00  0.2000E+01
    -40.828  0.0000E+00  0.2000E+01
    -40.806  0.0000E+00  0.2000E+01
    -40.784  0.0000E+00  0.2000E+01
    -40.762  0.0000E+00  0.2000E+01
    -40.740  0.0000E+00  0.2000E+01
    -40.718  0.0000E+00  0.2000E+01
    -40.696  0.0000E+00  0.2000E+01
    -40.675  0.0000E+00  0.2000E+01
    -40.653  0.0000E+00  0.2000E+01
    -40.631  0.0000E+00  0.2000E+01
    -40.609  0.0000E+00  0.2000E+01
    -40.587  0.0000E+00  0.2000E+01
    -40.565  0.0000E+00  0.2000E+01
    -40.543  0.0000E+00  0.2000E+01
    -40.521  0.0000E+00  0.2000E+01
    -40.499  0.0000E+00  0.2000E+01
    -40.478  0.0000E+00  0.2000E+01
    -40.456  0.0000E+00  0.2000E+01
    -40.434  0.0000E+00  0.2000E+01
    -40.412  0.0000E+00  0.2000E+01
    -40.390  0.0000E+00  0.2000E+01
    -40.368  0.0000E+00  0.2000E+01
    -40.346  0.0000E+00  0.2000E+01
    -40.324  0.0000E+00  0.2000E+01
    -40.302  0.0000E+00  0.2000E+01
    -40.281  0.0000E+00  0.2000E+01
    -40.259  0.0000E+00  0.2000E+01
    -40.237  0.0000E+00  0.2000E+01
    -40.215  0.0000E+00  0.2000E+01
    -40.193  0.0000E+00  0.2000E+01
    -40.171  0.0000E+00  0.2000E+01
    -40.149  0.0000E+00  0.2000E+01
    -40.127  0.0000E+00  0.2000E+01
    -40.105  0.0000E+00  0.2000E+01
    -40.083  0.0000E+00  0.2000E+01
    -40.062  0.0000E+00  0.2000E+01
    -40.040  0.0000E+00  0.2000E+01
    -40.018  0.0000E+00  0.2000E+01
    -39.996  0.0000E+00  0.2000E+01
    -39.974  0.0000E+00  0.2000E+01
    -39.952  0.0000E+00  0.2000E+01
    -39.930  0.0000E+00  0.2000E+01
    -39.908  0.0000E+00  0.2000E+01
    -39.886  0.0000E+00  0.2000E+01
    -39.865  0.0000E+00  0.2000E+01
    -39.843  0.0000E+00  0.2000E+01
    -39.821  0.0000E+00  0.2000E+01
    -39.799  0.0000E+00  0.2000E+01
    -39.777  0.0000E+00  0.2000E+01
    -39.755  0.0000E+00  0.2000E+01
    -39.733  0.0000E+00  0.2000E+01
    -39.711  0.0000E+00  0.2000E+01
    -39.689  0.0000E+00  0.2000E+01
    -39.667  0.0000E+00  0.2000E+01
    -39.646  0.0000E+00  0.2000E+01
    -39.624  0.0000E+00  0.2000E+01
    -39.602  0.0000E+00  0.2000E+01
    -39.580  0.0000E+00  0.2000E+01
    -39.558  0.0000E+00  0.2000E+01
    -39.536  0.0000E+00  0.2000E+01
    -39.514  0.0000E+00  0.2000E+01
    -39.492  0.0000E+00  0.2000E+01
    -39.470  0.0000E+00  0.2000E+01
    -39.449  0.0000E+00  0.2000E+01
    -39.427  0.0000E+00  0.2000E+01
    -39.405  0.0000E+00  0.2000E+01
    -39.383  0.0000E+00  0.2000E+01
    -39.361  0.0000E+00  0.2000E+01
    -39.339  0.0000E+00  0.2000E+01
    -39.317  0.0000E+00  0.2000E+01
    -39.295  0.0000E+00  0.2000E+01
    -39.273  0.0000E+00  0.2000E+01
    -39.252  0.0000E+00  0.2000E+01
    -39.230  0.0000E+00  0.2000E+01
    -39.208  0.0000E+00  0.2000E+01
    -39.186  0.0000E+00  0.2000E+01
    -39.164  0.0000E+00  0.2000E+01
    -39.142  0.0000E+00  0.2000E+01
    -39.120  0.0000E+00  0.2000E+01
    -39.098  0.0000E+00  0.2000E+01
    -39.076  0.0000E+00  0.2000E+01
    -39.054  0.0000E+00  0.2000E+01
    -39.033  0.0000E+00  0.2000E+01
    -39.011  0.0000E+00  0.2000E+01
    -38.989  0.0000E+00  0.2000E+01
    -38.967  0.0000E+00  0.2000E+01
    -38.945  0.0000E+00  0.2000E+01
    -38.923  0.0000E+00  0.2000E+01
    -38.901  0.0000E+00  0.2000E+01
    -38.879  0.0000E+00  0.2000E+01
    -38.857  0.0000E+00  0.2000E+01
    -38.836  0.0000E+00  0.2000E+01
    -38.814  0.0000E+00  0.2000E+01
    -38.792  0.0000E+00  0.2000E+01
    -38.770  0.0000E+00  0.2000E+01
    -38.748  0.0000E+00  0.2000E+01
    -38.726  0.0000E+00  0.2000E+01
    -38.704  0.0000E+00  0.2000E+01
    -38.682  0.0000E+00  0.2000E+01
    -38.660  0.0000E+00  0.2000E+01
    -38.639  0.0000E+00  0.2000E+01
    -38.617  0.0000E+00  0.2000E+01
    -38.595  0.0000E+00  0.2000E+01
    -38.573  0.0000E+00  0.2000E+01
    -38.551  0.0000E+00  0.2000E+01
    -38.529  0.0000E+00  0.2000E+01
    -38.507  0.0000E+00  0.2000E+01
    -38.485  0.0000E+00  0.2000E+01
    -38.463  0.0000E+00  0.2000E+01