    5    5    1    1
  0.1229600E+02  0.3946795E-09  0.3946795E-09  0.3946795E-09  0.5000000E-15
  1.000000000000000E-004
  CAR 
 SrTiO3                                  
   40   30   24
 
  0.0000000E+00  0.0000000E+00  0.0000000E+00  0.3333333E-01
   1      -53.312953
   2      -29.641643
   3      -29.620012
   4      -29.620012
   5      -29.620012
   6      -14.144373
   7      -13.191426
   8      -13.191426
   9      -11.694022
  10      -11.694022
  11      -11.694022
  12        0.373156
  13        0.373156
  14        0.373156
  15        2.055653
  16        2.055653
  17        2.055653
  18        2.811543
  19        2.811543
  20        2.811543
  21        4.958076
  22        4.958076
  23        4.958076
  24        7.230726
 
  0.5555556E-01  0.5555556E-01  0.5555556E-01  0.3333333E-01
   1      -53.312743
   2      -29.661192
   3      -29.621716
   4      -29.621716
   5      -29.600300
   6      -14.142420
   7      -13.195628
   8      -13.195628
   9      -11.680501
  10      -11.680501
  11      -11.650675
  12        0.273564
  13        0.358718
  14        0.358718
  15        1.883282
  16        1.883282
  17        2.085892
  18        2.593139
  19        2.703786
  20        2.703786
  21        5.079997
  22        5.110934
  23        5.110934
  24        7.385588
 
  0.1111111E+00  0.1111111E+00  0.1111111E+00  0.3333333E-01
   1      -53.312309
   2      -29.682880
   3      -29.626652
   4      -29.626652
   5      -29.578322
   6      -14.125507
   7      -13.203604
   8      -13.203604
   9      -11.648731
  10      -11.648731
  11      -11.540831
  12        0.009113
  13        0.304936
  14        0.304936
  15        1.467309
  16        1.467309
  17        2.064515
  18        2.173911
  19        2.477918
  20        2.477918
  21        5.376729
  22        5.454263
  23        5.454263
  24        7.799296
 
  0.1666667E+00  0.1666667E+00  0.1666667E+00  0.3333333E-01
   1      -53.311683
   2      -29.695397
   3      -29.634182
   4      -29.634182
   5      -29.565790
   6      -14.069117
   7      -13.203185
   8      -13.203185
   9      -11.619621
  10      -11.619621
  11      -11.414098
  12       -0.330881
  13        0.188239
  14        0.188239
  15        0.976866
  16        0.976866
  17        1.411746
  18        2.287238
  19        2.287238
  20        2.311562
  21        5.758735
  22        5.847875
  23        5.847875
  24        8.369398
 
  0.2222222E+00  0.2222222E+00  0.2222222E+00  0.3333333E-01
   1      -53.311121
   2      -29.697142
   3      -29.643402
   4      -29.643402
   5      -29.564575
   6      -13.953836
   7      -13.183012
   8      -13.183012
   9      -11.615081
  10      -11.615081
  11      -11.327631
  12       -0.641883
  13       -0.002574
  14       -0.002574
  15        0.514053
  16        0.514053
  17        0.743492
  18        2.234297
  19        2.234297
  20        2.485004
  21        6.167687
  22        6.239680
  23        6.239680
  24        9.003138
 
  0.2777778E+00  0.2777778E+00  0.2777778E+00  0.3333333E-01
   1      -53.310336
   2      -29.690221
   3      -29.653146
   4      -29.653146
   5      -29.572466
   6      -13.772082
   7      -13.135592
   8      -13.135592
   9      -11.648009
  10      -11.648009
  11      -11.325719
  12       -0.847949
  13       -0.239847
  14       -0.239847
  15        0.125054
  16        0.125054
  17        0.129812
  18        2.342556
  19        2.342556
  20        2.677559
  21        6.558109
  22        6.610336
  23        6.610336
  24        9.627294
 
  0.3333333E+00  0.3333333E+00  0.3333333E+00  0.3333333E-01
   1      -53.309749
   2      -29.680233
   3      -29.662271
   4      -29.662271
   5      -29.583534
   6      -13.531673
   7      -13.064472
   8      -13.064472
   9      -11.718195
  10      -11.718195
  11      -11.425532
  12       -0.957890
  13       -0.484938
  14       -0.484938
  15       -0.348085
  16       -0.163889
  17       -0.163889
  18        2.570677
  19        2.570677
  20        2.864396
  21        6.898373
  22        6.937971
  23        6.937971
  24       10.161958
 
  0.3888889E+00  0.3888889E+00  0.3888889E+00  0.3333333E-01
   1      -53.309254
   2      -29.674410
   3      -29.669655
   4      -29.669655
   5      -29.590195
   6      -13.256288
   7      -12.979951
   8      -12.979951
   9      -11.809893
  10      -11.809893
  11      -11.609197
  12       -1.115024
  13       -0.699377
  14       -0.699377
  15       -0.542205
  16       -0.347865
  17       -0.347865
  18        2.845707
  19        2.845707
  20        3.022766
  21        7.170451
  22        7.197688
  23        7.197688
  24       10.361524
 
  0.4444444E+00  0.4444444E+00  0.4444444E+00  0.3333333E-01
   1      -53.308985
   2      -29.674861
   3      -29.674468
   4      -29.674468
   5      -29.590217
   6      -12.998072
   7      -12.905624
   8      -12.905624
   9      -11.892609
  10      -11.892609
  11      -11.818895
  12       -1.311119
  13       -0.844018
  14       -0.844018
  15       -0.511665
  16       -0.446704
  17       -0.446704
  18        3.075408
  19        3.075408
  20        3.128769
  21        7.355099
  22        7.365080
  23        7.365080
  24       10.113163
 
  0.5000000E+00  0.5000000E+00  0.5000000E+00  0.3333333E-01
   1      -53.308688
   2      -29.676116
   3      -29.676116
   4      -29.676116
   5      -29.589088
   6      -12.874099
   7      -12.874099
   8      -12.874099
   9      -11.927145
  10      -11.927145
  11      -11.927145
  12       -1.388938
  13       -0.894321
  14       -0.894321
  15       -0.477508
  16       -0.477508
  17       -0.477508
  18        3.166747
  19        3.166747
  20        3.166747
  21        7.423525
  22        7.423525
  23        7.423526
  24        9.983527
 
  0.5000000E+00  0.5000000E+00  0.5000000E+00  0.3333333E-01
   1      -53.308688
   2      -29.676116
   3      -29.676116
   4      -29.676116
   5      -29.589088
   6      -12.874099
   7      -12.874099
   8      -12.874099
   9      -11.927145
  10      -11.927145
  11      -11.927145
  12       -1.388938
  13       -0.894321
  14       -0.894321
  15       -0.477508
  16       -0.477508
  17       -0.477508
  18        3.166747
  19        3.166747
  20        3.166747
  21        7.423525
  22        7.423525
  23        7.423526
  24        9.983731
 
  0.5000000E+00  0.5000000E+00  0.4444444E+00  0.3333333E-01
   1      -53.308908
   2      -29.676228
   3      -29.676228
   4      -29.674320
   5      -29.589567
   6      -12.897536
   7      -12.897536
   8      -12.895636
   9      -11.917895
  10      -11.899525
  11      -11.899525
  12       -1.365027
  13       -0.895071
  14       -0.858098
  15       -0.503258
  16       -0.461207
  17       -0.461207
  18        3.129897
  19        3.129897
  20        3.163579
  21        7.395706
  22        7.395706
  23        7.416892
  24        9.996334
 
  0.5000000E+00  0.5000000E+00  0.3888889E+00  0.3333333E-01
   1      -53.309021
   2      -29.676490
   3      -29.676490
   4      -29.669074
   5      -29.590948
   6      -12.957456
   7      -12.957456
   8      -12.955527
   9      -11.890999
  10      -11.826032
  11      -11.826032
  12       -1.314048
  13       -0.896524
  14       -0.730210
  15       -0.576704
  16       -0.411982
  17       -0.411982
  18        3.023938
  19        3.023938
  20        3.155793
  21        7.321765
  22        7.321765
  23        7.399254
  24       10.016621
 
  0.5000000E+00  0.5000000E+00  0.3333333E+00  0.3333333E-01
   1      -53.309092
   2      -29.676881
   3      -29.676881
   4      -29.661021
   5      -29.593060
   6      -13.045042
   7      -13.036275
   8      -13.036275
   9      -11.849306
  10      -11.725960
  11      -11.725960
  12       -1.275392
  13       -0.898725
  14       -0.688828
  15       -0.485996
  16       -0.330596
  17       -0.330596
  18        2.857463
  19        2.857463
  20        3.143995
  21        7.219744
  22        7.219744
  23        7.372474
  24        9.998283
 
  0.5000000E+00  0.5000000E+00  0.2777778E+00  0.3333333E-01
   1      -53.309384
   2      -29.677382
   3      -29.677382
   4      -29.651130
   5      -29.595659
   6      -13.152697
   7      -13.119617
   8      -13.119617
   9      -11.797494
  10      -11.617116
  11      -11.617116
  12       -1.258821
  13       -0.901516
  14       -0.825882
  15       -0.219694
  16       -0.219694
  17       -0.140190
  18        2.642819
  19        2.642819
  20        3.129321
  21        7.107689
  22        7.107689
  23        7.339846
  24        9.803631
 
  0.5000000E+00  0.5000000E+00  0.2222222E+00  0.3333333E-01
   1      -53.309539
   2      -29.677894
   3      -29.677894
   4      -29.640546
   5      -29.598409
   6      -13.263214
   7      -13.196433
   8      -13.196433
   9      -11.741360
  10      -11.512337
  11      -11.512337
  12       -1.255571
  13       -0.971171
  14       -0.904237
  15       -0.081993
  16       -0.081993
  17        0.268644
  18        2.397482
  19        2.397482
  20        3.114551
  21        7.001493
  22        7.001493
  23        7.305479
  24        9.418489
 
  0.5000000E+00  0.5000000E+00  0.1666667E+00  0.3333333E-01
   1      -53.309817
   2      -29.678387
   3      -29.678387
   4      -29.630581
   5      -29.600995
   6      -13.365005
   7      -13.261413
   8      -13.261413
   9      -11.687676
  10      -11.421542
  11      -11.421542
  12       -1.258543
  13       -1.107399
  14       -0.907057
  15        0.074602
  16        0.074602
  17        0.691070
  18        2.140733
  19        2.140733
  20        3.099818
  21        6.910521
  22        6.910521
  23        7.273291
  24        8.971475
 
  0.5000000E+00  0.5000000E+00  0.1111111E+00  0.3333333E-01
   1      -53.309938
   2      -29.678790
   3      -29.678790
   4      -29.622422
   5      -29.603102
   6      -13.445485
   7      -13.309798
   8      -13.309798
   9      -11.643184
  10      -11.351530
  11      -11.351530
  12       -1.263105
  13       -1.218200
  14       -0.909255
  15        0.235969
  16        0.235969
  17        1.069915
  18        1.899342
  19        1.899342
  20        3.088339
  21        6.842018
  22        6.842018
  23        7.247277
  24        8.562005
 
  0.5000000E+00  0.5000000E+00  0.5555556E-01  0.3333333E-01
   1      -53.310053
   2      -29.679048
   3      -29.679048
   4      -29.617074
   5      -29.604475
   6      -13.497401
   7      -13.339782
   8      -13.339782
   9      -11.613795
  10      -11.307532
  11      -11.307532
  12       -1.290473
  13       -1.266852
  14       -0.910655
  15        0.370842
  16        0.370842
  17        1.338549
  18        1.712424
  19        1.712424
  20        3.080932
  21        6.799370
  22        6.799370
  23        7.230273
  24        8.270314
 
  0.5000000E+00  0.5000000E+00  0.0000000E+00  0.3333333E-01
   1      -53.310216
   2      -29.679145
   3      -29.679145
   4      -29.615235
   5      -29.604956
   6      -13.515953
   7      -13.350270
   8      -13.350270
   9      -11.603557
  10      -11.292738
  11      -11.292738
  12       -1.315795
  13       -1.268500
  14       -0.911317
  15        0.427006
  16        0.427006
  17        1.436402
  18        1.637717
  19        1.637717
  20        3.077846
  21        6.784763
  22        6.784763
  23        7.224261
  24        8.163771
 
  0.5000000E+00  0.5000000E+00  0.0000000E+00  0.3333333E-01
   1      -53.310216
   2      -29.679145
   3      -29.679145
   4      -29.615235
   5      -29.604956
   6      -13.515953
   7      -13.350270
   8      -13.350270
   9      -11.603557
  10      -11.292738
  11      -11.292738
  12       -1.315795
  13       -1.268500
  14       -0.911317
  15        0.427006
  16        0.427006
  17        1.436402
  18        1.637717
  19        1.637717
  20        3.077846
  21        6.784763
  22        6.784763
  23        7.224261
  24        8.163772
 
  0.4444444E+00  0.5000000E+00  0.0000000E+00  0.3333333E-01
   1      -53.310183
   2      -29.683011
   3      -29.677308
   4      -29.615295
   5      -29.601622
   6      -13.587177
   7      -13.338953
   8      -13.295511
   9      -11.605037
  10      -11.301355
  11      -11.291887
  12       -1.282927
  13       -1.239545
  14       -0.884955
  15        0.425544
  16        0.440281
  17        1.459252
  18        1.620259
  19        1.638211
  20        3.054661
  21        6.740626
  22        6.784546
  23        7.198947
  24        8.156447
 
  0.3888889E+00  0.5000000E+00  0.0000000E+00  0.3333333E-01
   1      -53.310220
   2      -29.692726
   3      -29.671996
   4      -29.615490
   5      -29.593455
   6      -13.713897
   7      -13.306258
   8      -13.218658
   9      -11.609339
  10      -11.327044
  11      -11.288085
  12       -1.185634
  13       -1.178343
  14       -0.787463
  15        0.421339
  16        0.478577
  17        1.526108
  18        1.569868
  19        1.641970
  20        2.982678
  21        6.612345
  22        6.783876
  23        7.130190
  24        8.132150
 
  0.3333333E+00  0.5000000E+00  0.0000000E+00  0.3333333E-01
   1      -53.310394
   2      -29.705120
   3      -29.663870
   4      -29.615804
   5      -29.583448
   6      -13.850167
   7      -13.254874
   8      -13.162449
   9      -11.615921
  10      -11.367953
  11      -11.277794
  12       -1.129531
  13       -1.026440
  14       -0.595836
  15        0.415293
  16        0.538020
  17        1.492067
  18        1.633506
  19        1.658371
  20        2.855435
  21        6.412816
  22        6.782863
  23        7.036875
  24        8.085481
 
  0.2777778E+00  0.5000000E+00  0.0000000E+00  0.3333333E-01
   1      -53.310622
   2      -29.717981
   3      -29.653846
   4      -29.616190
   5      -29.573504
   6      -13.982887
   7      -13.188722
   8      -13.131925
   9      -11.623994
  10      -11.421062
  11      -11.258463
  12       -1.101304
  13       -0.809570
  14       -0.337262
  15        0.408360
  16        0.612130
  17        1.396419
  18        1.705283
  19        1.775019
  20        2.668156
  21        6.160730
  22        6.781709
  23        6.942499
  24        8.006092
 
  0.2222222E+00  0.5000000E+00  0.0000000E+00  0.3333333E-01
   1      -53.310804
   2      -29.729951
   3      -29.643158
   4      -29.616591
   5      -29.564626
   6      -14.103752
   7      -13.122916
   8      -13.113458
   9      -11.632524
  10      -11.481787
  11      -11.230971
  12       -1.084086
  13       -0.540660
  14       -0.070390
  15        0.401746
  16        0.692811
  17        1.294039
  18        1.806470
  19        1.941344
  20        2.419927
  21        5.880262
  22        6.780764
  23        6.865969
  24        7.881117
 
  0.1666667E+00  0.5000000E+00  0.0000000E+00  0.3333333E-01
   1      -53.311020
   2      -29.740130
   3      -29.633067
   4      -29.616983
   5      -29.557355
   6      -14.205999
   7      -13.128605
   8      -13.037504
   9      -11.640528
  10      -11.543987
  11      -11.199921
  12       -1.072150
  13       -0.227952
  14        0.148774
  15        0.395605
  16        0.770245
  17        1.196143
  18        1.975297
  19        2.117551
  20        2.117802
  21        5.599457
  22        6.779804
  23        6.815991
  24        7.703531
 
  0.1111111E+00  0.5000000E+00  0.0000000E+00  0.3333333E-01
   1      -53.311276
   2      -29.747863
   3      -29.624839
   4      -29.617299
   5      -29.552008
   6      -14.283636
   7      -13.140323
   8      -12.970799
   9      -11.647032
  10      -11.599427
  11      -11.171663
  12       -1.064055
  13        0.117892
  14        0.291575
  15        0.391071
  16        0.834701
  17        1.110059
  18        1.778701
  19        2.188766
  20        2.282019
  21        5.351928
  22        6.779167
  23        6.790279
  24        7.493544
 
  0.5555556E-01  0.5000000E+00  0.0000000E+00  0.3333333E-01
   1      -53.311350
   2      -29.752677
   3      -29.619435
   4      -29.617497
   5      -29.548733
   6      -14.332542
   7      -13.149500
   8      -12.923956
   9      -11.651247
  10      -11.638488
  11      -11.152010
  12       -1.058902
  13        0.365607
  14        0.388674
  15        0.478376
  16        0.877522
  17        1.025994
  18        1.448056
  19        2.374596
  20        2.402896
  21        5.177243
  22        6.779041
  23        6.781185
  24        7.313246
 
  0.0000000E+00  0.5000000E+00  0.0000000E+00  0.3333333E-01
   1      -53.311448
   2      -29.754311
   3      -29.617564
   4      -29.617564
   5      -29.547638
   6      -14.349463
   7      -13.153146
   8      -12.907288
   9      -11.652717
  10      -11.652717
  11      -11.145130
  12       -1.057258
  13        0.387740
  14        0.387740
  15        0.756312
  16        0.892480
  17        0.892480
  18        1.283668
  19        2.448318
  20        2.448318
  21        5.113331
  22        6.778974
  23        6.778974
  24        7.240734
